ITEM: TIMESTEP
0      0
ITEM: NUMBER OF ATOMS
1596
ITEM: BOX BOUNDS xy xz yz
-1.295419977e-11  100  -1.0363359816e-11
-2.590839954e-12  100  -2.590839954e-12
0  25  -2.590839954e-12
ITEM: ATOMS id type coord x y z
34 B 5 -2.0726719632e-12 -2.0726719632e-12 22.5
35 A 5 2.5 -2.0726719632e-12 22.5
38 A 5 -2.0726719632e-12 2.5 22.5
39 B 5 2.5 2.5 22.5
74 B 5 -2.590839954e-12 5 22.5
75 A 5 2.5 5 22.5
78 A 5 -2.590839954e-12 7.5 22.5
79 B 5 2.5 7.5 22.5
114 B 5 -3.1090079448e-12 10 22.5
115 A 5 2.5 10 22.5
118 A 5 -3.1090079448e-12 12.5 22.5
119 B 5 2.5 12.5 22.5
154 B 5 -3.6271759356e-12 15 22.5
155 A 5 2.5 15 22.5
158 A 5 -3.6271759356e-12 17.5 22.5
159 B 5 2.5 17.5 22.5
194 B 5 -4.1453439264e-12 20 22.5
195 A 5 2.5 20 22.5
198 A 5 -4.1453439264e-12 22.5 22.5
199 B 5 2.5 22.5 22.5
234 B 5 -4.6635119172e-12 25 22.5
235 A 5 2.5 25 22.5
238 A 5 -4.6635119172e-12 27.5 22.5
239 B 5 2.5 27.5 22.5
274 B 5 -5.181679908e-12 30 22.5
275 A 5 2.49999999999 30 22.5
278 A 5 -5.181679908e-12 32.5 22.5
279 B 5 2.49999999999 32.5 22.5
314 B 5 -5.6998478988e-12 35 22.5
315 A 5 2.49999999999 35 22.5
318 A 5 -5.6998478988e-12 37.5 22.5
319 B 5 2.49999999999 37.5 22.5
354 B 5 -6.2180158896e-12 40 22.5
355 A 5 2.49999999999 40 22.5
358 A 5 -6.2180158896e-12 42.5 22.5
359 B 5 2.49999999999 42.5 22.5
394 B 5 -6.7361838804e-12 45 22.5
395 A 5 2.49999999999 45 22.5
398 A 5 -6.7361838804e-12 47.5 22.5
399 B 5 2.49999999999 47.5 22.5
434 B 5 -7.2543518712e-12 50 22.5
435 A 5 2.49999999999 50 22.5
438 A 5 -7.2543518712e-12 52.5 22.5
439 B 5 2.49999999999 52.5 22.5
474 B 5 -7.772519862e-12 55 22.5
475 A 5 2.49999999999 55 22.5
478 A 5 -7.772519862e-12 57.5 22.5
479 B 5 2.49999999999 57.5 22.5
514 B 5 -8.2906878528e-12 60 22.5
515 A 5 2.49999999999 60 22.5
518 A 5 -8.2906878528e-12 62.5 22.5
519 B 5 2.49999999999 62.5 22.5
554 B 5 -8.8088558436e-12 65 22.5
555 A 5 2.49999999999 65 22.5
558 A 5 -8.8088558436e-12 67.5 22.5
559 B 5 2.49999999999 67.5 22.5
594 B 5 -9.3270238344e-12 70 22.5
595 A 5 2.49999999999 70 22.5
598 A 5 -9.3270238344e-12 72.5 22.5
599 B 5 2.49999999999 72.5 22.5
634 B 5 -9.8451918252e-12 75 22.5
635 A 5 2.49999999999 75 22.5
638 A 5 -9.8451918252e-12 77.5 22.5
639 B 5 2.49999999999 77.5 22.5
674 B 5 -1.0363359816e-11 80 22.5
675 A 5 2.49999999999 80 22.5
678 A 5 -1.0363359816e-11 82.5 22.5
679 B 5 2.49999999999 82.5 22.5
714 B 5 -1.08815278068e-11 85 22.5
715 A 5 2.49999999999 85 22.5
718 A 5 -1.08815278068e-11 87.5 22.5
719 B 5 2.49999999999 87.5 22.5
754 B 5 -1.13996957976e-11 90 22.5
755 A 5 2.49999999999 90 22.5
758 A 5 -1.13996957976e-11 92.5 22.5
759 B 5 2.49999999999 92.5 22.5
794 B 5 -1.19178637884e-11 95 22.5
795 A 5 2.49999999999 95 22.5
798 A 5 -1.19178637884e-11 97.5 22.5
799 B 5 2.49999999999 97.5 22.5
834 B 5 5 -2.0726719632e-12 22.5
835 A 5 7.5 -2.0726719632e-12 22.5
838 A 5 5 2.5 22.5
839 B 5 7.5 2.5 22.5
874 B 5 5 5 22.5
875 A 5 7.5 5 22.5
878 A 5 5 7.5 22.5
879 B 5 7.5 7.5 22.5
914 B 5 5 10 22.5
915 A 5 7.5 10 22.5
918 A 5 5 12.5 22.5
919 B 5 7.5 12.5 22.5
954 B 5 5 15 22.5
955 A 5 7.5 15 22.5
958 A 5 5 17.5 22.5
959 B 5 7.5 17.5 22.5
994 B 5 5 20 22.5
995 A 5 7.5 20 22.5
998 A 5 5 22.5 22.5
999 B 5 7.5 22.5 22.5
1034 B 5 5 25 22.5
1035 A 5 7.5 25 22.5
1038 A 5 5 27.5 22.5
1039 B 5 7.5 27.5 22.5
1074 B 5 4.99999999999 30 22.5
1075 A 5 7.49999999999 30 22.5
1078 A 5 4.99999999999 32.5 22.5
1079 B 5 7.49999999999 32.5 22.5
1114 B 5 4.99999999999 35 22.5
1115 A 5 7.49999999999 35 22.5
1118 A 5 4.99999999999 37.5 22.5
1119 B 5 7.49999999999 37.5 22.5
1154 B 5 4.99999999999 40 22.5
1155 A 5 7.49999999999 40 22.5
1158 A 5 4.99999999999 42.5 22.5
1159 B 5 7.49999999999 42.5 22.5
1194 B 5 4.99999999999 45 22.5
1195 A 5 7.49999999999 45 22.5
1198 A 5 4.99999999999 47.5 22.5
1199 B 5 7.49999999999 47.5 22.5
1234 B 5 4.99999999999 50 22.5
1235 A 5 7.49999999999 50 22.5
1238 A 5 4.99999999999 52.5 22.5
1239 B 5 7.49999999999 52.5 22.5
1274 B 5 4.99999999999 55 22.5
1275 A 5 7.49999999999 55 22.5
1278 A 5 4.99999999999 57.5 22.5
1279 B 5 7.49999999999 57.5 22.5
1314 B 5 4.99999999999 60 22.5
1315 A 5 7.49999999999 60 22.5
1318 A 5 4.99999999999 62.5 22.5
1319 B 5 7.49999999999 62.5 22.5
1354 B 5 4.99999999999 65 22.5
1355 A 5 7.49999999999 65 22.5
1358 A 5 4.99999999999 67.5 22.5
1359 B 5 7.49999999999 67.5 22.5
1394 B 5 4.99999999999 70 22.5
1395 A 5 7.49999999999 70 22.5
1398 A 5 4.99999999999 72.5 22.5
1399 B 5 7.49999999999 72.5 22.5
1434 B 5 4.99999999999 75 22.5
1435 A 5 7.49999999999 75 22.5
1438 A 5 4.99999999999 77.5 22.5
1439 B 5 7.49999999999 77.5 22.5
1474 B 5 4.99999999999 80 22.5
1475 A 5 7.49999999999 80 22.5
1478 A 5 4.99999999999 82.5 22.5
1479 B 5 7.49999999999 82.5 22.5
1514 B 5 4.99999999999 85 22.5
1515 A 5 7.49999999999 85 22.5
1518 A 5 4.99999999999 87.5 22.5
1519 B 5 7.49999999999 87.5 22.5
1554 B 5 4.99999999999 90 22.5
1555 A 5 7.49999999999 90 22.5
1558 A 5 4.99999999999 92.5 22.5
1559 B 5 7.49999999999 92.5 22.5
1594 B 5 4.99999999999 95 22.5
1595 A 5 7.49999999999 95 22.5
1598 A 5 4.99999999999 97.5 22.5
1599 B 5 7.49999999999 97.5 22.5
1634 B 5 10 -2.0726719632e-12 22.5
1635 A 5 12.5 -2.0726719632e-12 22.5
1638 A 5 10 2.5 22.5
1639 B 5 12.5 2.5 22.5
1674 B 5 10 5 22.5
1675 A 5 12.5 5 22.5
1678 A 5 10 7.5 22.5
1679 B 5 12.5 7.5 22.5
1714 B 5 10 10 22.5
1715 A 5 12.5 10 22.5
1718 A 5 10 12.5 22.5
1719 B 5 12.5 12.5 22.5
1754 B 5 10 15 22.5
1755 A 5 12.5 15 22.5
1758 A 5 10 17.5 22.5
1759 B 5 12.5 17.5 22.5
1794 B 5 10 20 22.5
1795 A 5 12.5 20 22.5
1798 A 5 10 22.5 22.5
1799 B 5 12.5 22.5 22.5
1834 B 5 10 25 22.5
1835 A 5 12.5 25 22.5
1838 A 5 10 27.5 22.5
1839 B 5 12.5 27.5 22.5
1874 B 5 9.99999999999 30 22.5
1875 A 5 12.5 30 22.5
1878 A 5 9.99999999999 32.5 22.5
1879 B 5 12.5 32.5 22.5
1914 B 5 9.99999999999 35 22.5
1915 A 5 12.5 35 22.5
1918 A 5 9.99999999999 37.5 22.5
1919 B 5 12.5 37.5 22.5
1954 B 5 9.99999999999 40 22.5
1955 A 5 12.5 40 22.5
1958 A 5 9.99999999999 42.5 22.5
1959 B 5 12.5 42.5 22.5
1994 B 5 9.99999999999 45 22.5
1995 A 5 12.5 45 22.5
1998 A 5 9.99999999999 47.5 22.5
1999 B 5 12.5 47.5 22.5
2034 B 5 9.99999999999 50 22.5
2035 A 5 12.5 50 22.5
2038 A 5 9.99999999999 52.5 22.5
2039 B 5 12.5 52.5 22.5
2074 B 5 9.99999999999 55 22.5
2075 A 5 12.5 55 22.5
2078 A 5 9.99999999999 57.5 22.5
2079 B 5 12.5 57.5 22.5
2114 B 5 9.99999999999 60 22.5
2115 A 5 12.5 60 22.5
2118 A 5 9.99999999999 62.5 22.5
2119 B 5 12.5 62.5 22.5
2154 B 5 9.99999999999 65 22.5
2155 A 5 12.5 65 22.5
2158 A 5 9.99999999999 67.5 22.5
2159 B 5 12.5 67.5 22.5
2194 B 5 9.99999999999 70 22.5
2195 A 5 12.5 70 22.5
2198 A 5 9.99999999999 72.5 22.5
2199 B 5 12.5 72.5 22.5
2234 B 5 9.99999999999 75 22.5
2235 A 5 12.5 75 22.5
2238 A 5 9.99999999999 77.5 22.5
2239 B 5 12.5 77.5 22.5
2274 B 5 9.99999999999 80 22.5
2275 A 5 12.5 80 22.5
2278 A 5 9.99999999999 82.5 22.5
2279 B 5 12.5 82.5 22.5
2314 B 5 9.99999999999 85 22.5
2315 A 5 12.5 85 22.5
2318 A 5 9.99999999999 87.5 22.5
2319 B 5 12.5 87.5 22.5
2354 B 5 9.99999999999 90 22.5
2355 A 5 12.5 90 22.5
2358 A 5 9.99999999999 92.5 22.5
2359 B 5 12.5 92.5 22.5
2394 B 5 9.99999999999 95 22.5
2395 A 5 12.5 95 22.5
2398 A 5 9.99999999999 97.5 22.5
2399 B 5 12.5 97.5 22.5
2434 B 5 15 -2.0726719632e-12 22.5
2435 A 5 17.5 -2.0726719632e-12 22.5
2438 A 5 15 2.5 22.5
2439 B 5 17.5 2.5 22.5
2474 B 5 15 5 22.5
2475 A 5 17.5 5 22.5
2478 A 5 15 7.5 22.5
2479 B 5 17.5 7.5 22.5
2514 B 5 15 10 22.5
2515 A 5 17.5 10 22.5
2518 A 5 15 12.5 22.5
2519 B 5 17.5 12.5 22.5
2554 B 5 15 15 22.5
2555 A 5 17.5 15 22.5
2558 A 5 15 17.5 22.5
2559 B 5 17.5 17.5 22.5
2594 B 5 15 20 22.5
2595 A 5 17.5 20 22.5
2598 A 5 15 22.5 22.5
2599 B 5 17.5 22.5 22.5
2634 B 5 15 25 22.5
2635 A 5 17.5 25 22.5
2638 A 5 15 27.5 22.5
2639 B 5 17.5 27.5 22.5
2674 B 5 15 30 22.5
2675 A 5 17.5 30 22.5
2678 A 5 15 32.5 22.5
2679 B 5 17.5 32.5 22.5
2714 B 5 15 35 22.5
2715 A 5 17.5 35 22.5
2718 A 5 15 37.5 22.5
2719 B 5 17.5 37.5 22.5
2754 B 5 15 40 22.5
2755 A 5 17.5 40 22.5
2758 A 5 15 42.5 22.5
2759 B 5 17.5 42.5 22.5
2794 B 5 15 45 22.5
2795 A 5 17.5 45 22.5
2798 A 5 15 47.5 22.5
2799 B 5 17.5 47.5 22.5
2834 B 5 15 50 22.5
2835 A 5 17.5 50 22.5
2838 A 5 15 52.5 22.5
2839 B 5 17.5 52.5 22.5
2874 B 5 15 55 22.5
2875 A 5 17.5 55 22.5
2878 A 5 15 57.5 22.5
2879 B 5 17.5 57.5 22.5
2914 B 5 15 60 22.5
2915 A 5 17.5 60 22.5
2918 A 5 15 62.5 22.5
2919 B 5 17.5 62.5 22.5
2954 B 5 15 65 22.5
2955 A 5 17.5 65 22.5
2958 A 5 15 67.5 22.5
2959 B 5 17.5 67.5 22.5
2994 B 5 15 70 22.5
2995 A 5 17.5 70 22.5
2998 A 5 15 72.5 22.5
2999 B 5 17.5 72.5 22.5
3034 B 5 15 75 22.5
3035 A 5 17.5 75 22.5
3038 A 5 15 77.5 22.5
3039 B 5 17.5 77.5 22.5
3074 B 5 15 80 22.5
3075 A 5 17.5 80 22.5
3078 A 5 15 82.5 22.5
3079 B 5 17.5 82.5 22.5
3114 B 5 15 85 22.5
3115 A 5 17.5 85 22.5
3118 A 5 15 87.5 22.5
3119 B 5 17.5 87.5 22.5
3154 B 5 15 90 22.5
3155 A 5 17.5 90 22.5
3158 A 5 15 92.5 22.5
3159 B 5 17.5 92.5 22.5
3194 B 5 15 95 22.5
3195 A 5 17.5 95 22.5
3198 A 5 15 97.5 22.5
3199 B 5 17.5 97.5 22.5
3234 B 5 20 -2.0726719632e-12 22.5
3235 A 5 22.5 -2.0726719632e-12 22.5
3238 A 5 20 2.5 22.5
3239 B 5 22.5 2.5 22.5
3274 B 5 20 5 22.5
3275 A 5 22.5 5 22.5
3278 A 5 20 7.5 22.5
3279 B 5 22.5 7.5 22.5
3314 B 5 20 10 22.5
3315 A 5 22.5 10 22.5
3318 A 5 20 12.5 22.5
3319 B 5 22.5 12.5 22.5
3354 B 5 20 15 22.5
3355 A 5 22.5 15 22.5
3358 A 5 20 17.5 22.5
3359 B 5 22.5 17.5 22.5
3394 B 5 20 20 22.5
3395 A 5 22.5 20 22.5
3398 A 5 20 22.5 22.5
3399 B 5 22.5 22.5 22.5
3434 B 5 20 25 22.5
3435 A 5 22.5 25 22.5
3438 A 5 20 27.5 22.5
3439 B 5 22.5 27.5 22.5
3474 B 5 20 30 22.5
3475 A 5 22.5 30 22.5
3478 A 5 20 32.5 22.5
3479 B 5 22.5 32.5 22.5
3514 B 5 20 35 22.5
3515 A 5 22.5 35 22.5
3518 A 5 20 37.5 22.5
3519 B 5 22.5 37.5 22.5
3554 B 5 20 40 22.5
3555 A 5 22.5 40 22.5
3558 A 5 20 42.5 22.5
3559 B 5 22.5 42.5 22.5
3594 B 5 20 45 22.5
3595 A 5 22.5 45 22.5
3598 A 5 20 47.5 22.5
3599 B 5 22.5 47.5 22.5
3634 B 5 20 50 22.5
3635 A 5 22.5 50 22.5
3638 A 5 20 52.5 22.5
3639 B 5 22.5 52.5 22.5
3674 B 5 20 55 22.5
3675 A 5 22.5 55 22.5
3678 A 5 20 57.5 22.5
3679 B 5 22.5 57.5 22.5
3714 B 5 20 60 22.5
3715 A 5 22.5 60 22.5
3718 A 5 20 62.5 22.5
3719 B 5 22.5 62.5 22.5
3754 B 5 20 65 22.5
3755 A 5 22.5 65 22.5
3758 A 5 20 67.5 22.5
3759 B 5 22.5 67.5 22.5
3794 B 5 20 70 22.5
3795 A 5 22.5 70 22.5
3798 A 5 20 72.5 22.5
3799 B 5 22.5 72.5 22.5
3834 B 5 20 75 22.5
3835 A 5 22.5 75 22.5
3838 A 5 20 77.5 22.5
3839 B 5 22.5 77.5 22.5
3874 B 5 20 80 22.5
3875 A 5 22.5 80 22.5
3878 A 5 20 82.5 22.5
3879 B 5 22.5 82.5 22.5
3914 B 5 20 85 22.5
3915 A 5 22.5 85 22.5
3918 A 5 20 87.5 22.5
3919 B 5 22.5 87.5 22.5
3954 B 5 20 90 22.5
3955 A 5 22.5 90 22.5
3958 A 5 20 92.5 22.5
3959 B 5 22.5 92.5 22.5
3994 B 5 20 95 22.5
3995 A 5 22.5 95 22.5
3998 A 5 20 97.5 22.5
3999 B 5 22.5 97.5 22.5
4034 B 5 25 -2.0726719632e-12 22.5
4035 A 5 27.5 -2.0726719632e-12 22.5
4038 A 5 25 2.5 22.5
4039 B 5 27.5 2.5 22.5
4074 B 5 25 5 22.5
4075 A 5 27.5 5 22.5
4078 A 5 25 7.5 22.5
4079 B 5 27.5 7.5 22.5
4114 B 5 25 10 22.5
4115 A 5 27.5 10 22.5
4118 A 5 25 12.5 22.5
4119 B 5 27.5 12.5 22.5
4154 B 5 25 15 22.5
4155 A 5 27.5 15 22.5
4158 A 5 25 17.5 22.5
4159 B 5 27.5 17.5 22.5
4194 B 5 25 20 22.5
4195 A 5 27.5 20 22.5
4198 A 5 25 22.5 22.5
4199 B 5 27.5 22.5 22.5
4234 B 5 25 25 22.5
4235 A 5 27.5 25 22.5
4238 A 5 25 27.5 22.5
4239 B 5 27.5 27.5 22.5
4274 B 5 25 30 22.5
4275 A 5 27.5 30 22.5
4278 A 5 25 32.5 22.5
4279 B 5 27.5 32.5 22.5
4314 B 5 25 35 22.5
4315 A 5 27.5 35 22.5
4318 A 5 25 37.5 22.5
4319 B 5 27.5 37.5 22.5
4354 B 5 25 40 22.5
4355 A 5 27.5 40 22.5
4358 A 5 25 42.5 22.5
4359 B 5 27.5 42.5 22.5
4394 B 5 25 45 22.5
4395 A 5 27.5 45 22.5
4398 A 5 25 47.5 22.5
4399 B 5 27.5 47.5 22.5
4434 B 5 25 50 22.5
4435 A 5 27.5 50 22.5
4438 A 5 25 52.5 22.5
4439 B 5 27.5 52.5 22.5
4474 B 5 25 55 22.5
4475 A 5 27.5 55 22.5
4478 A 5 25 57.5 22.5
4479 B 5 27.5 57.5 22.5
4514 B 5 25 60 22.5
4515 A 5 27.5 60 22.5
4518 A 5 25 62.5 22.5
4519 B 5 27.5 62.5 22.5
4554 B 5 25 65 22.5
4555 A 5 27.5 65 22.5
4558 A 5 25 67.5 22.5
4559 B 5 27.5 67.5 22.5
4594 B 5 25 70 22.5
4595 A 5 27.5 70 22.5
4598 A 5 25 72.5 22.5
4599 B 5 27.5 72.5 22.5
4634 B 5 25 75 22.5
4635 A 5 27.5 75 22.5
4638 A 5 25 77.5 22.5
4639 B 5 27.5 77.5 22.5
4674 B 5 25 80 22.5
4675 A 5 27.5 80 22.5
4678 A 5 25 82.5 22.5
4679 B 5 27.5 82.5 22.5
4714 B 5 25 85 22.5
4715 A 5 27.5 85 22.5
4718 A 5 25 87.5 22.5
4719 B 5 27.5 87.5 22.5
4754 B 5 25 90 22.5
4755 A 5 27.5 90 22.5
4758 A 5 25 92.5 22.5
4759 B 5 27.5 92.5 22.5
4794 B 5 25 95 22.5
4795 A 5 27.5 95 22.5
4798 A 5 25 97.5 22.5
4799 B 5 27.5 97.5 22.5
4834 B 5 30 -2.0726719632e-12 22.5
4835 A 5 32.5 -2.0726719632e-12 22.5
4838 A 5 30 2.5 22.5
4839 B 5 32.5 2.5 22.5
4874 B 5 30 5 22.5
4875 A 5 32.5 5 22.5
4878 A 5 30 7.5 22.5
4879 B 5 32.5 7.5 22.5
4914 B 5 30 10 22.5
4915 A 5 32.5 10 22.5
4918 A 5 30 12.5 22.5
4919 B 5 32.5 12.5 22.5
4954 B 5 30 15 22.5
4955 A 5 32.5 15 22.5
4958 A 5 30 17.5 22.5
4959 B 5 32.5 17.5 22.5
4994 B 5 30 20 22.5
4995 A 5 32.5 20 22.5
4998 A 5 30 22.5 22.5
4999 B 5 32.5 22.5 22.5
5034 B 5 30 25 22.5
5035 A 5 32.5 25 22.5
5038 A 5 30 27.5 22.5
5039 B 5 32.5 27.5 22.5
5074 B 5 30 30 22.5
5075 A 5 32.5 30 22.5
5078 A 5 30 32.5 22.5
5079 B 5 32.5 32.5 22.5
5114 B 5 30 35 22.5
5115 A 5 32.5 35 22.5
5118 A 5 30 37.5 22.5
5119 B 5 32.5 37.5 22.5
5154 B 5 30 40 22.5
5155 A 5 32.5 40 22.5
5158 A 5 30 42.5 22.5
5159 B 5 32.5 42.5 22.5
5194 B 5 30 45 22.5
5195 A 5 32.5 45 22.5
5198 A 5 30 47.5 22.5
5199 B 5 32.5 47.5 22.5
5234 B 5 30 50 22.5
5235 A 5 32.5 50 22.5
5238 A 5 30 52.5 22.5
5239 B 5 32.5 52.5 22.5
5274 B 5 30 55 22.5
5275 A 5 32.5 55 22.5
5278 A 5 30 57.5 22.5
5279 B 5 32.5 57.5 22.5
5314 B 5 30 60 22.5
5315 A 5 32.5 60 22.5
5318 A 5 30 62.5 22.5
5319 B 5 32.5 62.5 22.5
5354 B 5 30 65 22.5
5355 A 5 32.5 65 22.5
5358 A 5 30 67.5 22.5
5359 B 5 32.5 67.5 22.5
5394 B 5 30 70 22.5
5395 A 5 32.5 70 22.5
5398 A 5 30 72.5 22.5
5399 B 5 32.5 72.5 22.5
5434 B 5 30 75 22.5
5435 A 5 32.5 75 22.5
5438 A 5 30 77.5 22.5
5439 B 5 32.5 77.5 22.5
5474 B 5 30 80 22.5
5475 A 5 32.5 80 22.5
5478 A 5 30 82.5 22.5
5479 B 5 32.5 82.5 22.5
5514 B 5 30 85 22.5
5515 A 5 32.5 85 22.5
5518 A 5 30 87.5 22.5
5519 B 5 32.5 87.5 22.5
5554 B 5 30 90 22.5
5555 A 5 32.5 90 22.5
5558 A 5 30 92.5 22.5
5559 B 5 32.5 92.5 22.5
5594 B 5 30 95 22.5
5595 A 5 32.5 95 22.5
5598 A 5 30 97.5 22.5
5599 B 5 32.5 97.5 22.5
5634 B 5 35 -2.0726719632e-12 22.5
5635 A 5 37.5 -2.0726719632e-12 22.5
5638 A 5 35 2.5 22.5
5639 B 5 37.5 2.5 22.5
5674 B 5 35 5 22.5
5675 A 5 37.5 5 22.5
5678 A 5 35 7.5 22.5
5679 B 5 37.5 7.5 22.5
5714 B 5 35 10 22.5
5715 A 5 37.5 10 22.5
5718 A 5 35 12.5 22.5
5719 B 5 37.5 12.5 22.5
5754 B 5 35 15 22.5
5755 A 5 37.5 15 22.5
5758 A 5 35 17.5 22.5
5759 B 5 37.5 17.5 22.5
5794 B 5 35 20 22.5
5795 A 5 37.5 20 22.5
5798 A 5 35 22.5 22.5
5799 B 5 37.5 22.5 22.5
5834 B 5 35 25 22.5
5835 A 5 37.5 25 22.5
5838 A 5 35 27.5 22.5
5839 B 5 37.5 27.5 22.5
5874 B 5 35 30 22.5
5875 A 5 37.5 30 22.5
5878 A 5 35 32.5 22.5
5879 B 5 37.5 32.5 22.5
5914 B 5 35 35 22.5
5915 A 5 37.5 35 22.5
5918 A 5 35 37.5 22.5
5919 B 5 37.5 37.5 22.5
5954 B 5 35 40 22.5
5955 A 5 37.5 40 22.5
5958 A 5 35 42.5 22.5
5959 B 5 37.5 42.5 22.5
5994 B 5 35 45 22.5
5995 A 5 37.5 45 22.5
5998 A 5 35 47.5 22.5
5999 B 5 37.5 47.5 22.5
6034 B 5 35 50 22.5
6035 A 5 37.5 50 22.5
6038 A 5 35 52.5 22.5
6039 B 5 37.5 52.5 22.5
6074 B 5 35 55 22.5
6075 A 5 37.5 55 22.5
6078 A 5 35 57.5 22.5
6079 B 5 37.5 57.5 22.5
6114 B 5 35 60 22.5
6115 A 5 37.5 60 22.5
6118 A 5 35 62.5 22.5
6119 B 5 37.5 62.5 22.5
6154 B 5 35 65 22.5
6155 A 5 37.5 65 22.5
6158 A 5 35 67.5 22.5
6159 B 5 37.5 67.5 22.5
6194 B 5 35 70 22.5
6195 A 5 37.5 70 22.5
6198 A 5 35 72.5 22.5
6199 B 5 37.5 72.5 22.5
6234 B 5 35 75 22.5
6235 A 5 37.5 75 22.5
6238 A 5 35 77.5 22.5
6239 B 5 37.5 77.5 22.5
6274 B 5 35 80 22.5
6275 A 5 37.5 80 22.5
6278 A 5 35 82.5 22.5
6279 B 5 37.5 82.5 22.5
6314 B 5 35 85 22.5
6315 A 5 37.5 85 22.5
6318 A 5 35 87.5 22.5
6319 B 5 37.5 87.5 22.5
6354 B 5 35 90 22.5
6355 A 5 37.5 90 22.5
6358 A 5 35 92.5 22.5
6359 B 5 37.5 92.5 22.5
6394 B 5 35 95 22.5
6395 A 5 37.5 95 22.5
6398 A 5 35 97.5 22.5
6399 B 5 37.5 97.5 22.5
6434 B 5 40 -2.0726719632e-12 22.5
6435 A 5 42.5 -2.0726719632e-12 22.5
6438 A 5 40 2.5 22.5
6439 B 5 42.5 2.5 22.5
6474 B 5 40 5 22.5
6475 A 5 42.5 5 22.5
6478 A 5 40 7.5 22.5
6479 B 5 42.5 7.5 22.5
6514 B 5 40 10 22.5
6515 A 5 42.5 10 22.5
6518 A 5 40 12.5 22.5
6519 B 5 42.5 12.5 22.5
6554 B 5 40 15 22.5
6555 A 5 42.5 15 22.5
6558 A 5 40 17.5 22.5
6559 B 5 42.5 17.5 22.5
6594 B 5 40 20 22.5
6595 A 5 42.5 20 22.5
6598 A 5 40 22.5 22.5
6599 B 5 42.5 22.5 22.5
6634 B 5 40 25 22.5
6635 A 5 42.5 25 22.5
6638 A 5 40 27.5 22.5
6639 B 5 42.5 27.5 22.5
6674 B 5 40 30 22.5
6675 A 5 42.5 30 22.5
6678 A 5 40 32.5 22.5
6679 B 5 42.5 32.5 22.5
6714 B 5 40 35 22.5
6715 A 5 42.5 35 22.5
6718 A 5 40 37.5 22.5
6719 B 5 42.5 37.5 22.5
6754 B 5 40 40 22.5
6755 A 5 42.5 40 22.5
6758 A 5 40 42.5 22.5
6759 B 5 42.5 42.5 22.5
6794 B 5 40 45 22.5
6795 A 5 42.5 45 22.5
6798 A 5 40 47.5 22.5
6799 B 5 42.5 47.5 22.5
6834 B 5 40 50 22.5
6835 A 5 42.5 50 22.5
6838 A 5 40 52.5 22.5
6839 B 5 42.5 52.5 22.5
6874 B 5 40 55 22.5
6875 A 5 42.5 55 22.5
6878 A 5 40 57.5 22.5
6879 B 5 42.5 57.5 22.5
6914 B 5 40 60 22.5
6915 A 5 42.5 60 22.5
6918 A 5 40 62.5 22.5
6919 B 5 42.5 62.5 22.5
6954 B 5 40 65 22.5
6955 A 5 42.5 65 22.5
6958 A 5 40 67.5 22.5
6959 B 5 42.5 67.5 22.5
6994 B 5 40 70 22.5
6995 A 5 42.5 70 22.5
6998 A 5 40 72.5 22.5
6999 B 5 42.5 72.5 22.5
7034 B 5 40 75 22.5
7035 A 5 42.5 75 22.5
7038 A 5 40 77.5 22.5
7039 B 5 42.5 77.5 22.5
7074 B 5 40 80 22.5
7075 A 5 42.5 80 22.5
7078 A 5 40 82.5 22.5
7079 B 5 42.5 82.5 22.5
7114 B 5 40 85 22.5
7115 A 5 42.5 85 22.5
7118 A 5 40 87.5 22.5
7119 B 5 42.5 87.5 22.5
7154 B 5 40 90 22.5
7155 A 5 42.5 90 22.5
7158 A 5 40 92.5 22.5
7159 B 5 42.5 92.5 22.5
7194 B 5 40 95 22.5
7195 A 5 42.5 95 22.5
7198 A 5 40 97.5 22.5
7199 B 5 42.5 97.5 22.5
7234 B 5 45 -2.0726719632e-12 22.5
7235 A 5 47.5 -2.0726719632e-12 22.5
7238 A 5 45 2.5 22.5
7239 B 5 47.5 2.5 22.5
7274 B 5 45 5 22.5
7275 A 5 47.5 5 22.5
7278 A 5 45 7.5 22.5
7279 B 5 47.5 7.5 22.5
7314 B 5 45 10 22.5
7315 A 5 47.5 10 22.5
7318 A 5 45 12.5 22.5
7319 B 5 47.5 12.5 22.5
7354 B 5 45 15 22.5
7355 A 5 47.5 15 22.5
7358 A 5 45 17.5 22.5
7359 B 5 47.5 17.5 22.5
7394 B 5 45 20 22.5
7395 A 5 47.5 20 22.5
7398 A 5 45 22.5 22.5
7399 B 5 47.5 22.5 22.5
7434 B 5 45 25 22.5
7435 A 5 47.5 25 22.5
7438 A 5 45 27.5 22.5
7439 B 5 47.5 27.5 22.5
7474 B 5 45 30 22.5
7475 A 5 47.5 30 22.5
7478 A 5 45 32.5 22.5
7479 B 5 47.5 32.5 22.5
7514 B 5 45 35 22.5
7515 A 5 47.5 35 22.5
7518 A 5 45 37.5 22.5
7519 B 5 47.5 37.5 22.5
7554 B 5 45 40 22.5
7555 A 5 47.5 40 22.5
7558 A 5 45 42.5 22.5
7559 B 5 47.5 42.5 22.5
7594 B 5 45 45 22.5
7595 A 5 47.5 45 22.5
7598 A 5 45 47.5 22.5
7599 B 5 47.5 47.5 22.5
7634 B 5 45 50 22.5
7635 A 5 47.5 50 22.5
7638 A 5 45 52.5 22.5
7639 B 5 47.5 52.5 22.5
7674 B 5 45 55 22.5
7675 A 5 47.5 55 22.5
7678 A 5 45 57.5 22.5
7679 B 5 47.5 57.5 22.5
7714 B 5 45 60 22.5
7715 A 5 47.5 60 22.5
7718 A 5 45 62.5 22.5
7719 B 5 47.5 62.5 22.5
7754 B 5 45 65 22.5
7755 A 5 47.5 65 22.5
7758 A 5 45 67.5 22.5
7759 B 5 47.5 67.5 22.5
7794 B 5 45 70 22.5
7795 A 5 47.5 70 22.5
7798 A 5 45 72.5 22.5
7799 B 5 47.5 72.5 22.5
7834 B 5 45 75 22.5
7835 A 5 47.5 75 22.5
7838 A 5 45 77.5 22.5
7839 B 5 47.5 77.5 22.5
7874 B 5 45 80 22.5
7875 A 5 47.5 80 22.5
7878 A 5 45 82.5 22.5
7879 B 5 47.5 82.5 22.5
7914 B 5 45 85 22.5
7915 A 5 47.5 85 22.5
7918 A 5 45 87.5 22.5
7919 B 5 47.5 87.5 22.5
7954 B 5 45 90 22.5
7955 A 5 47.5 90 22.5
7958 A 5 45 92.5 22.5
7959 B 5 47.5 92.5 22.5
7994 B 5 45 95 22.5
7995 A 5 47.5 95 22.5
7998 A 5 45 97.5 22.5
7999 B 5 47.5 97.5 22.5
8034 B 5 50 -2.0726719632e-12 22.5
8035 A 5 52.5 -2.0726719632e-12 22.5
8038 A 5 50 2.5 22.5
8039 B 5 52.5 2.5 22.5
8074 B 5 50 5 22.5
8075 A 5 52.5 5 22.5
8078 A 5 50 7.5 22.5
8079 B 5 52.5 7.5 22.5
8114 B 5 50 10 22.5
8115 A 5 52.5 10 22.5
8118 A 5 50 12.5 22.5
8119 B 5 52.5 12.5 22.5
8154 B 5 50 15 22.5
8155 A 5 52.5 15 22.5
8158 A 5 50 17.5 22.5
8159 B 5 52.5 17.5 22.5
8194 B 5 50 20 22.5
8195 A 5 52.5 20 22.5
8198 A 5 50 22.5 22.5
8199 B 5 52.5 22.5 22.5
8234 B 5 50 25 22.5
8235 A 5 52.5 25 22.5
8238 A 5 50 27.5 22.5
8239 B 5 52.5 27.5 22.5
8274 B 5 50 30 22.5
8275 A 5 52.5 30 22.5
8278 A 5 50 32.5 22.5
8279 B 5 52.5 32.5 22.5
8314 B 5 50 35 22.5
8315 A 5 52.5 35 22.5
8318 A 5 50 37.5 22.5
8319 B 5 52.5 37.5 22.5
8354 B 5 50 40 22.5
8355 A 5 52.5 40 22.5
8358 A 5 50 42.5 22.5
8359 B 5 52.5 42.5 22.5
8394 B 5 50 45 22.5
8395 A 5 52.5 45 22.5
8398 A 5 50 47.5 22.5
8399 B 5 52.5 47.5 22.5
8434 B 5 50 50 22.5
8435 A 5 52.5 50 22.5
8438 A 5 50 52.5 22.5
8439 B 5 52.5 52.5 22.5
8474 B 5 50 55 22.5
8475 A 5 52.5 55 22.5
8478 A 5 50 57.5 22.5
8479 B 5 52.5 57.5 22.5
8514 B 5 50 60 22.5
8515 A 5 52.5 60 22.5
8518 A 5 50 62.5 22.5
8519 B 5 52.5 62.5 22.5
8554 B 5 50 65 22.5
8555 A 5 52.5 65 22.5
8558 A 5 50 67.5 22.5
8559 B 5 52.5 67.5 22.5
8594 B 5 50 70 22.5
8595 A 5 52.5 70 22.5
8598 A 5 50 72.5 22.5
8599 B 5 52.5 72.5 22.5
8634 B 5 50 75 22.5
8635 A 5 52.5 75 22.5
8638 A 5 50 77.5 22.5
8639 B 5 52.5 77.5 22.5
8674 B 5 50 80 22.5
8675 A 5 52.5 80 22.5
8678 A 5 50 82.5 22.5
8679 B 5 52.5 82.5 22.5
8714 B 5 50 85 22.5
8715 A 5 52.5 85 22.5
8718 A 5 50 87.5 22.5
8719 B 5 52.5 87.5 22.5
8754 B 5 50 90 22.5
8755 A 5 52.5 90 22.5
8758 A 5 50 92.5 22.5
8759 B 5 52.5 92.5 22.5
8794 B 5 50 95 22.5
8795 A 5 52.5 95 22.5
8798 A 5 50 97.5 22.5
8799 B 5 52.5 97.5 22.5
8834 B 5 55 -2.0726719632e-12 22.5
8835 A 5 57.5 -2.0726719632e-12 22.5
8838 A 5 55 2.5 22.5
8839 B 5 57.5 2.5 22.5
8874 B 5 55 5 22.5
8875 A 5 57.5 5 22.5
8878 A 5 55 7.5 22.5
8879 B 5 57.5 7.5 22.5
8914 B 5 55 10 22.5
8915 A 5 57.5 10 22.5
8918 A 5 55 12.5 22.5
8919 B 5 57.5 12.5 22.5
8954 B 5 55 15 22.5
8955 A 5 57.5 15 22.5
8958 A 5 55 17.5 22.5
8959 B 5 57.5 17.5 22.5
8994 B 5 55 20 22.5
8995 A 5 57.5 20 22.5
8998 A 5 55 22.5 22.5
8999 B 5 57.5 22.5 22.5
9034 B 5 55 25 22.5
9035 A 5 57.5 25 22.5
9038 A 5 55 27.5 22.5
9039 B 5 57.5 27.5 22.5
9074 B 5 55 30 22.5
9075 A 5 57.5 30 22.5
9078 A 5 55 32.5 22.5
9079 B 5 57.5 32.5 22.5
9114 B 5 55 35 22.5
9115 A 5 57.5 35 22.5
9118 A 5 55 37.5 22.5
9119 B 5 57.5 37.5 22.5
9154 B 5 55 40 22.5
9155 A 5 57.5 40 22.5
9158 A 5 55 42.5 22.5
9159 B 5 57.5 42.5 22.5
9194 B 5 55 45 22.5
9195 A 5 57.5 45 22.5
9198 A 5 55 47.5 22.5
9199 B 5 57.5 47.5 22.5
9234 B 5 55 50 22.5
9235 A 5 57.5 50 22.5
9238 A 5 55 52.5 22.5
9239 B 5 57.5 52.5 22.5
9274 B 5 55 55 22.5
9275 A 5 57.5 55 22.5
9278 A 5 55 57.5 22.5
9279 B 5 57.5 57.5 22.5
9314 B 5 55 60 22.5
9315 A 5 57.5 60 22.5
9318 A 5 55 62.5 22.5
9319 B 5 57.5 62.5 22.5
9354 B 5 55 65 22.5
9355 A 5 57.5 65 22.5
9358 A 5 55 67.5 22.5
9359 B 5 57.5 67.5 22.5
9394 B 5 55 70 22.5
9395 A 5 57.5 70 22.5
9398 A 5 55 72.5 22.5
9399 B 5 57.5 72.5 22.5
9434 B 5 55 75 22.5
9435 A 5 57.5 75 22.5
9438 A 5 55 77.5 22.5
9439 B 5 57.5 77.5 22.5
9474 B 5 55 80 22.5
9475 A 5 57.5 80 22.5
9478 A 5 55 82.5 22.5
9479 B 5 57.5 82.5 22.5
9514 B 5 55 85 22.5
9515 A 5 57.5 85 22.5
9518 A 5 55 87.5 22.5
9519 B 5 57.5 87.5 22.5
9554 B 5 55 90 22.5
9555 A 5 57.5 90 22.5
9558 A 5 55 92.5 22.5
9559 B 5 57.5 92.5 22.5
9594 B 5 55 95 22.5
9595 A 5 57.5 95 22.5
9598 A 5 55 97.5 22.5
9599 B 5 57.5 97.5 22.5
9634 B 5 60 -2.0726719632e-12 22.5
9635 A 5 62.5 -2.0726719632e-12 22.5
9638 A 5 60 2.5 22.5
9639 B 5 62.5 2.5 22.5
9674 B 5 60 5 22.5
9675 A 5 62.5 5 22.5
9678 A 5 60 7.5 22.5
9679 B 5 62.5 7.5 22.5
9714 B 5 60 10 22.5
9715 A 5 62.5 10 22.5
9718 A 5 60 12.5 22.5
9719 B 5 62.5 12.5 22.5
9754 B 5 60 15 22.5
9755 A 5 62.5 15 22.5
9758 A 5 60 17.5 22.5
9759 B 5 62.5 17.5 22.5
9794 B 5 60 20 22.5
9795 A 5 62.5 20 22.5
9798 A 5 60 22.5 22.5
9799 B 5 62.5 22.5 22.5
9834 B 5 60 25 22.5
9835 A 5 62.5 25 22.5
9838 A 5 60 27.5 22.5
9839 B 5 62.5 27.5 22.5
9874 B 5 60 30 22.5
9875 A 5 62.5 30 22.5
9878 A 5 60 32.5 22.5
9879 B 5 62.5 32.5 22.5
9914 B 5 60 35 22.5
9915 A 5 62.5 35 22.5
9918 A 5 60 37.5 22.5
9919 B 5 62.5 37.5 22.5
9954 B 5 60 40 22.5
9955 A 5 62.5 40 22.5
9958 A 5 60 42.5 22.5
9959 B 5 62.5 42.5 22.5
9994 B 5 60 45 22.5
9995 A 5 62.5 45 22.5
9998 A 5 60 47.5 22.5
9999 B 5 62.5 47.5 22.5
10034 B 5 60 50 22.5
10035 A 5 62.5 50 22.5
10038 A 5 60 52.5 22.5
10039 B 5 62.5 52.5 22.5
10074 B 5 60 55 22.5
10075 A 5 62.5 55 22.5
10078 A 5 60 57.5 22.5
10079 B 5 62.5 57.5 22.5
10114 B 5 60 60 22.5
10115 A 5 62.5 60 22.5
10118 A 5 60 62.5 22.5
10119 B 5 62.5 62.5 22.5
10154 B 5 60 65 22.5
10155 A 5 62.5 65 22.5
10158 A 5 60 67.5 22.5
10159 B 5 62.5 67.5 22.5
10194 B 5 60 70 22.5
10195 A 5 62.5 70 22.5
10198 A 5 60 72.5 22.5
10199 B 5 62.5 72.5 22.5
10234 B 5 60 75 22.5
10235 A 5 62.5 75 22.5
10238 A 5 60 77.5 22.5
10239 B 5 62.5 77.5 22.5
10274 B 5 60 80 22.5
10275 A 5 62.5 80 22.5
10278 A 5 60 82.5 22.5
10279 B 5 62.5 82.5 22.5
10314 B 5 60 85 22.5
10315 A 5 62.5 85 22.5
10318 A 5 60 87.5 22.5
10319 B 5 62.5 87.5 22.5
10354 B 5 60 90 22.5
10355 A 5 62.5 90 22.5
10358 A 5 60 92.5 22.5
10359 B 5 62.5 92.5 22.5
10394 B 5 60 95 22.5
10395 A 5 62.5 95 22.5
10398 A 5 60 97.5 22.5
10399 B 5 62.5 97.5 22.5
10434 B 5 65 -2.0726719632e-12 22.5
10435 A 5 67.5 -2.0726719632e-12 22.5
10438 A 5 65 2.5 22.5
10439 B 5 67.5 2.5 22.5
10474 B 5 65 5 22.5
10475 A 5 67.5 5 22.5
10478 A 5 65 7.5 22.5
10479 B 5 67.5 7.5 22.5
10514 B 5 65 10 22.5
10515 A 5 67.5 10 22.5
10518 A 5 65 12.5 22.5
10519 B 5 67.5 12.5 22.5
10554 B 5 65 15 22.5
10555 A 5 67.5 15 22.5
10558 A 5 65 17.5 22.5
10559 B 5 67.5 17.5 22.5
10594 B 5 65 20 22.5
10595 A 5 67.5 20 22.5
10598 A 5 65 22.5 22.5
10599 B 5 67.5 22.5 22.5
10634 B 5 65 25 22.5
10635 A 5 67.5 25 22.5
10638 A 5 65 27.5 22.5
10639 B 5 67.5 27.5 22.5
10674 B 5 65 30 22.5
10675 A 5 67.5 30 22.5
10678 A 5 65 32.5 22.5
10679 B 5 67.5 32.5 22.5
10714 B 5 65 35 22.5
10715 A 5 67.5 35 22.5
10718 A 5 65 37.5 22.5
10719 B 5 67.5 37.5 22.5
10754 B 5 65 40 22.5
10755 A 5 67.5 40 22.5
10758 A 5 65 42.5 22.5
10759 B 5 67.5 42.5 22.5
10794 B 5 65 45 22.5
10795 A 5 67.5 45 22.5
10798 A 5 65 47.5 22.5
10799 B 5 67.5 47.5 22.5
10834 B 5 65 50 22.5
10835 A 5 67.5 50 22.5
10838 A 5 65 52.5 22.5
10839 B 5 67.5 52.5 22.5
10874 B 5 65 55 22.5
10875 A 5 67.5 55 22.5
10878 A 5 65 57.5 22.5
10879 B 5 67.5 57.5 22.5
10914 B 5 65 60 22.5
10915 A 5 67.5 60 22.5
10918 A 5 65 62.5 22.5
10919 B 5 67.5 62.5 22.5
10954 B 5 65 65 22.5
10955 A 5 67.5 65 22.5
10958 A 5 65 67.5 22.5
10959 B 5 67.5 67.5 22.5
10994 B 5 65 70 22.5
10995 A 5 67.5 70 22.5
10998 A 5 65 72.5 22.5
10999 B 5 67.5 72.5 22.5
11034 B 5 65 75 22.5
11035 A 5 67.5 75 22.5
11038 A 5 65 77.5 22.5
11039 B 5 67.5 77.5 22.5
11074 B 5 65 80 22.5
11075 A 5 67.5 80 22.5
11078 A 5 65 82.5 22.5
11079 B 5 67.5 82.5 22.5
11114 B 5 65 85 22.5
11115 A 5 67.5 85 22.5
11118 A 5 65 87.5 22.5
11119 B 5 67.5 87.5 22.5
11154 B 5 65 90 22.5
11155 A 5 67.5 90 22.5
11158 A 5 65 92.5 22.5
11159 B 5 67.5 92.5 22.5
11194 B 5 65 95 22.5
11195 A 5 67.5 95 22.5
11198 A 5 65 97.5 22.5
11199 B 5 67.5 97.5 22.5
11234 B 5 70 -2.0726719632e-12 22.5
11235 A 5 72.5 -2.0726719632e-12 22.5
11238 A 5 70 2.5 22.5
11239 B 5 72.5 2.5 22.5
11274 B 5 70 5 22.5
11275 A 5 72.5 5 22.5
11278 A 5 70 7.5 22.5
11279 B 5 72.5 7.5 22.5
11314 B 5 70 10 22.5
11315 A 5 72.5 10 22.5
11318 A 5 70 12.5 22.5
11319 B 5 72.5 12.5 22.5
11354 B 5 70 15 22.5
11355 A 5 72.5 15 22.5
11358 A 5 70 17.5 22.5
11359 B 5 72.5 17.5 22.5
11394 B 5 70 20 22.5
11395 A 5 72.5 20 22.5
11398 A 5 70 22.5 22.5
11399 B 5 72.5 22.5 22.5
11434 B 5 70 25 22.5
11435 A 5 72.5 25 22.5
11438 A 5 70 27.5 22.5
11439 B 5 72.5 27.5 22.5
11474 B 5 70 30 22.5
11475 A 5 72.5 30 22.5
11478 A 5 70 32.5 22.5
11479 B 5 72.5 32.5 22.5
11514 B 5 70 35 22.5
11515 A 5 72.5 35 22.5
11518 A 5 70 37.5 22.5
11519 B 5 72.5 37.5 22.5
11554 B 5 70 40 22.5
11555 A 5 72.5 40 22.5
11558 A 5 70 42.5 22.5
11559 B 5 72.5 42.5 22.5
11594 B 5 70 45 22.5
11595 A 5 72.5 45 22.5
11598 A 5 70 47.5 22.5
11599 B 5 72.5 47.5 22.5
11634 B 5 70 50 22.5
11635 A 5 72.5 50 22.5
11638 A 5 70 52.5 22.5
11639 B 5 72.5 52.5 22.5
11674 B 5 70 55 22.5
11675 A 5 72.5 55 22.5
11678 A 5 70 57.5 22.5
11679 B 5 72.5 57.5 22.5
11714 B 5 70 60 22.5
11715 A 5 72.5 60 22.5
11718 A 5 70 62.5 22.5
11719 B 5 72.5 62.5 22.5
11754 B 5 70 65 22.5
11755 A 5 72.5 65 22.5
11758 A 5 70 67.5 22.5
11759 B 5 72.5 67.5 22.5
11794 B 5 70 70 22.5
11795 A 5 72.5 70 22.5
11798 A 5 70 72.5 22.5
11799 B 5 72.5 72.5 22.5
11834 B 5 70 75 22.5
11835 A 4 72.5 75 22.5
11838 A 5 70 77.5 22.5
11839 B 4 72.5 77.5 22.5
11874 B 5 70 80 22.5
11875 A 5 72.5 80 22.5
11878 A 5 70 82.5 22.5
11879 B 5 72.5 82.5 22.5
11914 B 5 70 85 22.5
11915 A 5 72.5 85 22.5
11918 A 5 70 87.5 22.5
11919 B 5 72.5 87.5 22.5
11954 B 5 70 90 22.5
11955 A 5 72.5 90 22.5
11958 A 5 70 92.5 22.5
11959 B 5 72.5 92.5 22.5
11994 B 5 70 95 22.5
11995 A 5 72.5 95 22.5
11998 A 5 70 97.5 22.5
11999 B 5 72.5 97.5 22.5
12034 B 5 75 -2.0726719632e-12 22.5